# vtk DataFile Version 2.0
Volume array
ASCII
DATASET STRUCTURED_POINTS
DIMENSIONS 16 16 16
ORIGIN 0 0 0
SPACING 1 1 1
POINT_DATA 4096
SCALARS Volume_array unsigned_short 1
LOOKUP_TABLE default
86 86 86 86 86 85 85 85 86 86 86 85 85 85 85 85 86 87 88 89 87 84 83 84 87 89 87 84 82 83 84 85 86 88 91 92 89 83 80 83 89 92 89 83 79 80 83 85 86 89 92 93 90 83 79 82 90 94 89 82 78 79 82 85 86 87 89 90 88 85 83 85 89 90 88 84 82 83 84 85 85 84 83 83 85 88 90 89 85 83 85 88 89 89 87 86 85 83 80 79 83 90 95 91 83 79 83 90 94 92 89 86 85 84 83 82 85 89 91 89 85 83 85 89 90 89 87 86 86 87 89 90 89 85 83 85 89 91 89 85 82 83 84 85 86 89 92 94 90 83 79 83 91 95 90 83 79 80 83 85 86 87 89 89 88 85 83 85 89 90 88 85 83 83 84 85 85 84 83 82 84 88 90 89 85 83 85 88 90 89 87 86 85 82 79 78 82 89 94 90 82 79 83 90 93 92 89 86 85 83 80 79 83 89 92 89 83 80 83 89 92 91 88 86 85 84 83 82 84 87 89 87 84 83 84 87 89 88 87 86 85 85 85 85 85 86 86 86 85 85 85 86 86 86 86 86 86 87 88 89 87 84 83 84 87 89 87 84 82 83 84 85 87 92 99 101 94 79 71 78 95 102 93 78 71 73 79 84 88 99 113 118 103 73 56 71 105 120 101 71 55 59 73 83 89 101 118 125 107 72 51 70 109 127 106 69 50 55 71 82 87 94 103 107 99 82 72 81 102 110 99 79 69 71 78 84 84 79 73 72 82 99 110 102 84 76 84 99 106 101 93 87 83 71 56 51 72 110 132 115 74 55 76 110 127 120 102 89 84 78 71 70 81 102 115 106 85 74 84 102 109 105 95 87 87 95 105 109 102 84 74 85 106 115 102 81 70 71 78 84 89 102 120 127 110 76 55 74 115 132 110 72 51 56 71 83 87 93 101 106 99 84 76 84 102 110 99 82 72 73 79 84 84 78 71 69 79 99 110 102 81 72 82 99 107 103 94 87 82 71 55 50 69 106 127 109 70 51 72 107 125 118 101 89 83 73 59 55 71 101 120 105 71 56 73 103 118 113 99 88 84 79 73 71 78 93 102 95 78 71 79 94 101 99 92 87 85 84 83 82 84 87 89 87 84 83 84 87 89 88 87 86 86 88 91 92 89 83 80 83 89 92 89 83 79 80 83 85 88 99 113 118 103 73 56 71 105 120 101 71 55 59 73 83 91 113 142 153 122 61 25 57 126 157 119 56 23 32 59 80 92 118 153 167 131 58 16 54 136 173 128 52 12 23 55 79 89 103 122 131 114 79 58 79 120 138 114 74 52 56 71 83 83 73 61 58 79 115 137 122 85 67 84 114 128 119 101 89 80 56 25 16 58 137 184 148 65 26 67 138 173 157 120 92 83 71 57 54 79 122 148 130 87 65 85 120 136 126 105 89 89 105 126 136 120 85 65 87 130 148 122 79 54 57 71 83 92 120 157 173 138 67 26 65 148 184 137 58 16 25 56 80 89 101 119 128 114 84 67 85 122 137 115 79 58 61 73 83 83 71 56 52 74 114 138 120 79 58 79 114 131 122 103 89 79 55 23 12 52 128 173 136 54 16 58 131 167 153 118 92 80 59 32 23 56 119 157 126 57 25 61 122 153 142 113 91 83 73 59 55 71 101 120 105 71 56 73 103 118 113 99 88 85 83 80 79 83 89 92 89 83 80 83 89 92 91 88 86 86 89 92 93 90 83 79 82 90 94 89 82 78 79 82 85 89 101 118 125 107 72 51 70 109 127 106 69 50 55 71 82 92 118 153 167 131 58 16 54 136 173 128 52 12 23 55 79 93 125 167 185 143 57 7 53 151 194 140 49 0 12 50 78 90 107 131 143 124 84 60 85 135 155 126 76 49 52 69 82 83 72 58 57 84 129 156 138 95 73 92 126 140 128 106 89 79 51 16 7 60 156 214 171 73 25 73 155 194 173 127 94 82 70 54 53 85 138 171 151 99 73 95 135 151 136 109 90 90 109 136 151 135 95 73 99 151 171 138 85 53 54 70 82 94 127 173 194 155 73 25 73 171 214 156 60 7 16 51 79 89 106 128 140 126 92 73 95 138 156 129 84 57 58 72 83 82 69 52 49 76 126 155 135 85 60 84 124 143 131 107 90 78 50 12 0 49 140 194 151 53 7 57 143 185 167 125 93 79 55 23 12 52 128 173 136 54 16 58 131 167 153 118 92 82 71 55 50 69 106 127 109 70 51 72 107 125 118 101 89 85 82 79 78 82 89 94 90 82 79 83 90 93 92 89 86 86 87 89 90 88 85 83 85 89 90 88 84 82 83 84 85 87 94 103 107 99 82 72 81 102 110 99 79 69 71 78 84 89 103 122 131 114 79 58 79 120 138 114 74 52 56 71 83 90 107 131 143 124 84 60 85 135 155 126 76 49 52 69 82 88 99 114 124 119 103 94 108 133 142 124 95 76 74 79 84 85 82 79 84 103 131 149 142 120 106 112 124 126 114 99 88 83 72 58 60 94 149 183 164 113 86 106 142 155 138 110 90 85 81 79 85 108 142 164 156 130 113 120 133 135 120 102 89 89 102 120 135 133 120 113 130 156 164 142 108 85 79 81 85 90 110 138 155 142 106 86 113 164 183 149 94 60 58 72 83 88 99 114 126 124 112 106 120 142 149 131 103 84 79 82 85 84 79 74 76 95 124 142 133 108 94 103 119 124 114 99 88 82 69 52 49 76 126 155 135 85 60 84 124 143 131 107 90 83 71 56 52 74 114 138 120 79 58 79 114 131 122 103 89 84 78 71 69 79 99 110 102 81 72 82 99 107 103 94 87 85 84 83 82 84 88 90 89 85 83 85 88 90 89 87 86 85 84 83 83 85 88 90 89 85 83 85 88 89 89 87 86 84 79 73 72 82 99 110 102 84 76 84 99 106 101 93 87 83 73 61 58 79 115 137 122 85 67 84 114 128 119 101 89 83 72 58 57 84 129 156 138 95 73 92 126 140 128 106 89 85 82 79 84 103 131 149 142 120 106 112 124 126 114 99 88 88 99 115 129 131 123 121 134 154 158 140 112 92 84 84 85 90 110 137 156 149 121 107 132 176 191 158 106 73 67 76 83 89 102 122 138 142 134 132 148 171 176 154 120 95 85 84 85 85 84 85 95 120 154 176 171 148 132 134 142 138 122 102 89 83 76 67 73 106 158 191 176 132 107 121 149 156 137 110 90 85 84 84 92 112 140 158 154 134 121 123 131 129 115 99 88 88 99 114 126 124 112 106 120 142 149 131 103 84 79 82 85 89 106 128 140 126 92 73 95 138 156 129 84 57 58 72 83 89 101 119 128 114 84 67 85 122 137 115 79 58 61 73 83 87 93 101 106 99 84 76 84 102 110 99 82 72 73 79 84 86 87 89 89 88 85 83 85 89 90 88 85 83 83 84 85 85 83 80 79 83 90 95 91 83 79 83 90 94 92 89 86 83 71 56 51 72 110 132 115 74 55 76 110 127 120 102 89 80 56 25 16 58 137 184 148 65 26 67 138 173 157 120 92 79 51 16 7 60 156 214 171 73 25 73 155 194 173 127 94 83 72 58 60 94 149 183 164 113 86 106 142 155 138 110 90 90 110 137 156 149 121 107 132 176 191 158 106 73 67 76 83 95 132 184 214 183 107 64 116 215 255 191 86 25 26 55 79 91 115 148 171 164 132 116 146 198 215 176 113 73 65 74 83 83 74 65 73 113 176 215 198 146 116 132 164 171 148 115 91 79 55 26 25 86 191 255 215 116 64 107 183 214 184 132 95 83 76 67 73 106 158 191 176 132 107 121 149 156 137 110 90 90 110 138 155 142 106 86 113 164 183 149 94 60 58 72 83 94 127 173 194 155 73 25 73 171 214 156 60 7 16 51 79 92 120 157 173 138 67 26 65 148 184 137 58 16 25 56 80 89 102 120 127 110 76 55 74 115 132 110 72 51 56 71 83 86 89 92 94 90 83 79 83 91 95 90 83 79 80 83 85 85 84 83 82 85 89 91 89 85 83 85 89 90 89 87 86 84 78 71 70 81 102 115 106 85 74 84 102 109 105 95 87 83 71 57 54 79 122 148 130 87 65 85 120 136 126 105 89 82 70 54 53 85 138 171 151 99 73 95 135 151 136 109 90 85 81 79 85 108 142 164 156 130 113 120 133 135 120 102 89 89 102 122 138 142 134 132 148 171 176 154 120 95 85 84 85 91 115 148 171 164 132 116 146 198 215 176 113 73 65 74 83 89 106 130 151 156 148 146 165 192 198 171 130 99 87 85 85 85 85 87 99 130 171 198 192 165 146 148 156 151 130 106 89 83 74 65 73 113 176 215 198 146 116 132 164 171 148 115 91 85 84 85 95 120 154 176 171 148 132 134 142 138 122 102 89 89 102 120 135 133 120 113 130 156 164 142 108 85 79 81 85 90 109 136 151 135 95 73 99 151 171 138 85 53 54 70 82 89 105 126 136 120 85 65 87 130 148 122 79 54 57 71 83 87 95 105 109 102 84 74 85 106 115 102 81 70 71 78 84 86 87 89 90 89 85 83 85 89 91 89 85 82 83 84 85 86 87 89 90 89 85 83 85 89 91 89 85 82 83 84 85 87 95 105 109 102 84 74 85 106 115 102 81 70 71 78 84 89 105 126 136 120 85 65 87 130 148 122 79 54 57 71 83 90 109 136 151 135 95 73 99 151 171 138 85 53 54 70 82 89 102 120 135 133 120 113 130 156 164 142 108 85 79 81 85 85 84 85 95 120 154 176 171 148 132 134 142 138 122 102 89 83 74 65 73 113 176 215 198 146 116 132 164 171 148 115 91 85 85 87 99 130 171 198 192 165 146 148 156 151 130 106 89 89 106 130 151 156 148 146 165 192 198 171 130 99 87 85 85 91 115 148 171 164 132 116 146 198 215 176 113 73 65 74 83 89 102 122 138 142 134 132 148 171 176 154 120 95 85 84 85 85 81 79 85 108 142 164 156 130 113 120 133 135 120 102 89 82 70 54 53 85 138 171 151 99 73 95 135 151 136 109 90 83 71 57 54 79 122 148 130 87 65 85 120 136 126 105 89 84 78 71 70 81 102 115 106 85 74 84 102 109 105 95 87 85 84 83 82 85 89 91 89 85 83 85 89 90 89 87 86 86 89 92 94 90 83 79 83 91 95 90 83 79 80 83 85 89 102 120 127 110 76 55 74 115 132 110 72 51 56 71 83 92 120 157 173 138 67 26 65 148 184 137 58 16 25 56 80 94 127 173 194 155 73 25 73 171 214 156 60 7 16 51 79 90 110 138 155 142 106 86 113 164 183 149 94 60 58 72 83 83 76 67 73 106 158 191 176 132 107 121 149 156 137 110 90 79 55 26 25 86 191 255 215 116 64 107 183 214 184 132 95 83 74 65 73 113 176 215 198 146 116 132 164 171 148 115 91 91 115 148 171 164 132 116 146 198 215 176 113 73 65 74 83 95 132 184 214 183 107 64 116 215 255 191 86 25 26 55 79 90 110 137 156 149 121 107 132 176 191 158 106 73 67 76 83 83 72 58 60 94 149 183 164 113 86 106 142 155 138 110 90 79 51 16 7 60 156 214 171 73 25 73 155 194 173 127 94 80 56 25 16 58 137 184 148 65 26 67 138 173 157 120 92 83 71 56 51 72 110 132 115 74 55 76 110 127 120 102 89 85 83 80 79 83 90 95 91 83 79 83 90 94 92 89 86 86 87 89 89 88 85 83 85 89 90 88 85 83 83 84 85 87 93 101 106 99 84 76 84 102 110 99 82 72 73 79 84 89 101 119 128 114 84 67 85 122 137 115 79 58 61 73 83 89 106 128 140 126 92 73 95 138 156 129 84 57 58 72 83 88 99 114 126 124 112 106 120 142 149 131 103 84 79 82 85 85 84 84 92 112 140 158 154 134 121 123 131 129 115 99 88 83 76 67 73 106 158 191 176 132 107 121 149 156 137 110 90 85 84 85 95 120 154 176 171 148 132 134 142 138 122 102 89 89 102 122 138 142 134 132 148 171 176 154 120 95 85 84 85 90 110 137 156 149 121 107 132 176 191 158 106 73 67 76 83 88 99 115 129 131 123 121 134 154 158 140 112 92 84 84 85 85 82 79 84 103 131 149 142 120 106 112 124 126 114 99 88 83 72 58 57 84 129 156 138 95 73 92 126 140 128 106 89 83 73 61 58 79 115 137 122 85 67 84 114 128 119 101 89 84 79 73 72 82 99 110 102 84 76 84 99 106 101 93 87 85 84 83 83 85 88 90 89 85 83 85 88 89 89 87 86 85 84 83 82 84 88 90 89 85 83 85 88 90 89 87 86 84 78 71 69 79 99 110 102 81 72 82 99 107 103 94 87 83 71 56 52 74 114 138 120 79 58 79 114 131 122 103 89 82 69 52 49 76 126 155 135 85 60 84 124 143 131 107 90 84 79 74 76 95 124 142 133 108 94 103 119 124 114 99 88 88 99 114 126 124 112 106 120 142 149 131 103 84 79 82 85 90 110 138 155 142 106 86 113 164 183 149 94 60 58 72 83 89 102 120 135 133 120 113 130 156 164 142 108 85 79 81 85 85 81 79 85 108 142 164 156 130 113 120 133 135 120 102 89 83 72 58 60 94 149 183 164 113 86 106 142 155 138 110 90 85 82 79 84 103 131 149 142 120 106 112 124 126 114 99 88 88 99 114 124 119 103 94 108 133 142 124 95 76 74 79 84 90 107 131 143 124 84 60 85 135 155 126 76 49 52 69 82 89 103 122 131 114 79 58 79 120 138 114 74 52 56 71 83 87 94 103 107 99 82 72 81 102 110 99 79 69 71 78 84 86 87 89 90 88 85 83 85 89 90 88 84 82 83 84 85 85 82 79 78 82 89 94 90 82 79 83 90 93 92 89 86 82 71 55 50 69 106 127 109 70 51 72 107 125 118 101 89 79 55 23 12 52 128 173 136 54 16 58 131 167 153 118 92 78 50 12 0 49 140 194 151 53 7 57 143 185 167 125 93 82 69 52 49 76 126 155 135 85 60 84 124 143 131 107 90 89 106 128 140 126 92 73 95 138 156 129 84 57 58 72 83 94 127 173 194 155 73 25 73 171 214 156 60 7 16 51 79 90 109 136 151 135 95 73 99 151 171 138 85 53 54 70 82 82 70 54 53 85 138 171 151 99 73 95 135 151 136 109 90 79 51 16 7 60 156 214 171 73 25 73 155 194 173 127 94 83 72 58 57 84 129 156 138 95 73 92 126 140 128 106 89 90 107 131 143 124 84 60 85 135 155 126 76 49 52 69 82 93 125 167 185 143 57 7 53 151 194 140 49 0 12 50 78 92 118 153 167 131 58 16 54 136 173 128 52 12 23 55 79 89 101 118 125 107 72 51 70 109 127 106 69 50 55 71 82 86 89 92 93 90 83 79 82 90 94 89 82 78 79 82 85 85 83 80 79 83 89 92 89 83 80 83 89 92 91 88 86 83 73 59 55 71 101 120 105 71 56 73 103 118 113 99 88 80 59 32 23 56 119 157 126 57 25 61 122 153 142 113 91 79 55 23 12 52 128 173 136 54 16 58 131 167 153 118 92 83 71 56 52 74 114 138 120 79 58 79 114 131 122 103 89 89 101 119 128 114 84 67 85 122 137 115 79 58 61 73 83 92 120 157 173 138 67 26 65 148 184 137 58 16 25 56 80 89 105 126 136 120 85 65 87 130 148 122 79 54 57 71 83 83 71 57 54 79 122 148 130 87 65 85 120 136 126 105 89 80 56 25 16 58 137 184 148 65 26 67 138 173 157 120 92 83 73 61 58 79 115 137 122 85 67 84 114 128 119 101 89 89 103 122 131 114 79 58 79 120 138 114 74 52 56 71 83 92 118 153 167 131 58 16 54 136 173 128 52 12 23 55 79 91 113 142 153 122 61 25 57 126 157 119 56 23 32 59 80 88 99 113 118 103 73 56 71 105 120 101 71 55 59 73 83 86 88 91 92 89 83 80 83 89 92 89 83 79 80 83 85 85 84 83 82 84 87 89 87 84 83 84 87 89 88 87 86 84 79 73 71 78 93 102 95 78 71 79 94 101 99 92 87 83 73 59 55 71 101 120 105 71 56 73 103 118 113 99 88 82 71 55 50 69 106 127 109 70 51 72 107 125 118 101 89 84 78 71 69 79 99 110 102 81 72 82 99 107 103 94 87 87 93 101 106 99 84 76 84 102 110 99 82 72 73 79 84 89 102 120 127 110 76 55 74 115 132 110 72 51 56 71 83 87 95 105 109 102 84 74 85 106 115 102 81 70 71 78 84 84 78 71 70 81 102 115 106 85 74 84 102 109 105 95 87 83 71 56 51 72 110 132 115 74 55 76 110 127 120 102 89 84 79 73 72 82 99 110 102 84 76 84 99 106 101 93 87 87 94 103 107 99 82 72 81 102 110 99 79 69 71 78 84 89 101 118 125 107 72 51 70 109 127 106 69 50 55 71 82 88 99 113 118 103 73 56 71 105 120 101 71 55 59 73 83 87 92 99 101 94 79 71 78 95 102 93 78 71 73 79 84 86 87 88 89 87 84 83 84 87 89 87 84 82 83 84 85 85 85 85 85 85 86 86 86 85 85 85 86 86 86 86 86 85 84 83 82 84 87 89 87 84 83 84 87 89 88 87 86 85 83 80 79 83 89 92 89 83 80 83 89 92 91 88 86 85 82 79 78 82 89 94 90 82 79 83 90 93 92 89 86 85 84 83 82 84 88 90 89 85 83 85 88 90 89 87 86 86 87 89 89 88 85 83 85 89 90 88 85 83 83 84 85 86 89 92 94 90 83 79 83 91 95 90 83 79 80 83 85 86 87 89 90 89 85 83 85 89 91 89 85 82 83 84 85 85 84 83 82 85 89 91 89 85 83 85 89 90 89 87 86 85 83 80 79 83 90 95 91 83 79 83 90 94 92 89 86 85 84 83 83 85 88 90 89 85 83 85 88 89 89 87 86 86 87 89 90 88 85 83 85 89 90 88 84 82 83 84 85 86 89 92 93 90 83 79 82 90 94 89 82 78 79 82 85 86 88 91 92 89 83 80 83 89 92 89 83 79 80 83 85 86 87 88 89 87 84 83 84 87 89 87 84 82 83 84 85 86 86 86 86 86 85 85 85 86 86 86 85 85 85 85 85
